 Gaussian 16, Revision B.01,
 Gaussian 16:  EM64L-G16RevB.01 20-Dec-2017

 ---------------------------
 #n B3LYP/genecp Opt Pop=NPA
 ---------------------------

 --
 HI
 --
 Symbolic Z-matrix:
 Charge =  0 Multiplicity = 1

 SCF Done:  E(RB3LYP) =  -11.9782100244     A.U. after    9 cycles
 SCF Done:  E(RB3LYP) =  -11.9815981305     A.U. after   10 cycles
 SCF Done:  E(RB3LYP) =  -11.9816712976     A.U. after    7 cycles
 Optimization completed.
    -- Stationary point found.

                         Standard orientation:
 ---------------------------------------------------------------------
 Center     Atomic      Atomic             Coordinates (Angstroms)
 Number     Number       Type             X           Y           Z
 ---------------------------------------------------------------------
      1         53           0        0.000000    0.000000    0.029908
      2          1           0        0.000000    0.000000   -1.585104
 ---------------------------------------------------------------------

 The electronic state is 1-SG.
 Alpha  occ. eigenvalues --   -0.70906  -0.41738  -0.28343  -0.28343
 Alpha virt. eigenvalues --   -0.03205   0.34885   0.37823   0.37823   0.74377
 Alpha virt. eigenvalues --    1.90190   1.90190   2.08682   9.36950

 Mulliken charges:
               1
     1  I   -0.002034
     2  H    0.002034
 Sum of Mulliken charges =  -0.00000

 Dipole moment (field-independent basis, Debye):
    X=              0.0000    Y=              0.0000    Z=             -0.8284  Tot=              0.8284
 Quadrupole moment (field-independent basis, Debye-Ang):
   XX=            -22.1160   YY=            -22.1160   ZZ=            -17.6007
   XY=              0.0000   XZ=              0.0000   YZ=              0.0000

 Summary of Natural Population Analysis:

                                       Natural Population
                Natural  -----------------------------------------------
    Atom  No    Charge         Core      Valence    Rydberg      Total
 -----------------------------------------------------------------------
      I    1   -0.04578     46.00000     7.03963    0.00615    53.04578
      H    2    0.04578      0.00000     0.95091    0.00331     0.95422
 =======================================================================
   * Total *   -0.00000     46.00000     7.99054    0.00946    54.00000

 Normal termination of Gaussian 16 at Mon Feb 11 12:27:08 2019.
