 Gaussian 16, Revision B.01,
 Gaussian 16:  EM64L-G16RevB.01 20-Dec-2017

 --------------------------------
 #n B3LYP/6-31+G(d,p) Opt Pop=NPA
 --------------------------------

 --------------------
 acidotricloroacetico
 --------------------
 Symbolic Z-matrix:
 Charge =  0 Multiplicity = 1

 SCF Done:  E(RB3LYP) =  -1607.83444557     A.U. after   14 cycles
 SCF Done:  E(RB3LYP) =  -1607.84138319     A.U. after   12 cycles
 SCF Done:  E(RB3LYP) =  -1607.84211621     A.U. after   11 cycles
 SCF Done:  E(RB3LYP) =  -1607.84231834     A.U. after   11 cycles
 SCF Done:  E(RB3LYP) =  -1607.84233124     A.U. after    9 cycles
 Optimization completed.
    -- Stationary point found.

                         Standard orientation:
 ---------------------------------------------------------------------
 Center     Atomic      Atomic             Coordinates (Angstroms)
 Number     Number       Type             X           Y           Z
 ---------------------------------------------------------------------
      1          6           0       -1.374738   -0.179402   -0.000121
      2          6           0        0.194682   -0.014985   -0.000003
      3          8           0       -1.853245   -1.278110   -0.000080
      4          8           0       -2.105627    0.938492   -0.000088
      5         17           0        0.832081   -0.802674    1.471888
      6         17           0        0.705841    1.731799    0.000066
      7         17           0        0.832296   -0.802621   -1.471828
      8          1           0       -1.542403    1.732692   -0.000054
 ---------------------------------------------------------------------

 The electronic state is 1-A.
 Alpha  occ. eigenvalues -- -101.60756-101.59715-101.59715 -19.24903 -19.18898
 Alpha  occ. eigenvalues --  -10.41253 -10.38084  -9.52370  -9.51270  -9.51270
 Alpha  occ. eigenvalues --   -7.28805  -7.27792  -7.27781  -7.27779  -7.27721
 Alpha  occ. eigenvalues --   -7.26637  -7.26637  -7.26611  -7.26611  -1.15686
 Alpha  occ. eigenvalues --   -1.07583  -0.97333  -0.87415  -0.86939  -0.72165
 Alpha  occ. eigenvalues --   -0.66092  -0.57725  -0.52459  -0.51841  -0.48330
 Alpha  occ. eigenvalues --   -0.47170  -0.44496  -0.39133  -0.39096  -0.37538
 Alpha  occ. eigenvalues --   -0.36344  -0.34911  -0.34644  -0.33675  -0.32067
 Alpha virt. eigenvalues --   -0.07717  -0.07348  -0.04205  -0.01233   0.01632
 Alpha virt. eigenvalues --    0.02880   0.03742   0.03779   0.06507   0.07931
 Alpha virt. eigenvalues --    0.07945   0.08253   0.09229   0.09334   0.10834

 Mulliken charges:
               1
     1  C    0.331424
     2  C   -0.246129
     3  O   -0.325331
     4  O   -0.353037
     5  Cl   0.126662
     6  Cl   0.001384
     7  Cl   0.126654
     8  H    0.338374
 Sum of Mulliken charges =  -0.00000

 Dipole moment (field-independent basis, Debye):
    X=              1.5133    Y=              2.6018    Z=             -0.0000  Tot=              3.0100
 Quadrupole moment (field-independent basis, Debye-Ang):
   XX=            -66.7240   YY=            -59.1354   ZZ=            -58.8113
   XY=             -4.6772   XZ=             -0.0002   YZ=             -0.0002

 Summary of Natural Population Analysis:

                                       Natural Population
                Natural  -----------------------------------------------
    Atom  No    Charge         Core      Valence    Rydberg      Total
 -----------------------------------------------------------------------
      C    1    0.78657      1.99921     3.16449    0.04973     5.21343
      C    2   -0.28150      1.99925     4.23782    0.04442     6.28150
      O    3   -0.53175      1.99977     6.50340    0.02859     8.53175
      O    4   -0.69153      1.99974     6.67011    0.02168     8.69153
     Cl    5    0.08474      9.99957     6.89457    0.02112    16.91526
     Cl    6    0.02403      9.99962     6.95630    0.02004    16.97597
     Cl    7    0.08474      9.99957     6.89458    0.02112    16.91526
      H    8    0.52470      0.00000     0.46989    0.00540     0.47530
 =======================================================================
   * Total *   -0.00000     37.99673    41.79117    0.21210    80.00000

 Normal termination of Gaussian 16 at Mon Feb 18 12:26:12 2019.
