 Gaussian 16, Revision B.01,
 Gaussian 16:  EM64L-G16RevB.01 20-Dec-2017

 --------------------------------
 #n B3LYP/6-31+G(d,p) Opt Pop=NPA
 --------------------------------

 -------------------
 acidodicloroacetico
 -------------------
 Symbolic Z-matrix:
 Charge =  0 Multiplicity = 1

 SCF Done:  E(RB3LYP) =  -1148.25403166     A.U. after   13 cycles
 SCF Done:  E(RB3LYP) =  -1148.25953276     A.U. after   11 cycles
 SCF Done:  E(RB3LYP) =  -1148.25989310     A.U. after   10 cycles
 SCF Done:  E(RB3LYP) =  -1148.25991453     A.U. after    9 cycles
 SCF Done:  E(RB3LYP) =  -1148.25991548     A.U. after    9 cycles
 Optimization completed.
    -- Stationary point found.

                         Standard orientation:
 ---------------------------------------------------------------------
 Center     Atomic      Atomic             Coordinates (Angstroms)
 Number     Number       Type             X           Y           Z
 ---------------------------------------------------------------------
      1          6           0        1.204178   -0.000389    0.149450
      2          6           0       -0.212157   -0.000023   -0.474031
      3          8           0        1.406690   -0.000166    1.330109
      4          8           0        2.220596   -0.000376   -0.745539
      5         17           0       -1.079395   -1.489198    0.014629
      6          1           0       -0.193182   -0.000042   -1.563539
      7         17           0       -1.078617    1.489620    0.014594
      8          1           0        1.908947   -0.000327   -1.662325
 ---------------------------------------------------------------------

 The electronic state is 1-A.
 Alpha  occ. eigenvalues -- -101.58465-101.58465 -19.24693 -19.18254 -10.37075
 Alpha  occ. eigenvalues --  -10.35350  -9.50021  -9.50021  -7.26495  -7.26494
 Alpha  occ. eigenvalues --   -7.25423  -7.25423  -7.25367  -7.25367  -1.14820
 Alpha  occ. eigenvalues --   -1.06798  -0.93527  -0.85550  -0.73218  -0.66144
 Alpha  occ. eigenvalues --   -0.57873  -0.51601  -0.50695  -0.47621  -0.45384
 Alpha  occ. eigenvalues --   -0.43442  -0.36722  -0.36110  -0.34322  -0.34173
 Alpha  occ. eigenvalues --   -0.33532  -0.31423
 Alpha virt. eigenvalues --   -0.06633  -0.05446  -0.02316   0.02167   0.02306
 Alpha virt. eigenvalues --    0.03188   0.04764   0.05904   0.07507   0.07991
 Alpha virt. eigenvalues --    0.08755   0.08879   0.09847   0.11936   0.12383

 Mulliken charges:
               1
     1  C    0.361086
     2  C   -0.345556
     3  O   -0.340114
     4  O   -0.365685
     5  Cl   0.071302
     6  H    0.208727
     7  Cl   0.071320
     8  H    0.338921
 Sum of Mulliken charges =  -0.00000

 Dipole moment (field-independent basis, Debye):
    X=             -0.5147    Y=             -0.0003    Z=             -4.2727  Tot=              4.3036
 Quadrupole moment (field-independent basis, Debye-Ang):
   XX=            -53.3572   YY=            -48.3753   ZZ=            -46.0182
   XY=             -0.0000   XZ=             -5.5101   YZ=              0.0009

 Summary of Natural Population Analysis:

                                       Natural Population
                Natural  -----------------------------------------------
    Atom  No    Charge         Core      Valence    Rydberg      Total
 -----------------------------------------------------------------------
      C    1    0.78052      1.99934     3.17252    0.04762     5.21948
      C    2   -0.39742      1.99910     4.36976    0.02856     6.39742
      O    3   -0.53194      1.99977     6.50447    0.02771     8.53194
      O    4   -0.69967      1.99976     6.67932    0.02059     8.69967
     Cl    5    0.02836      9.99967     6.95183    0.02014    16.97164
      H    6    0.27367      0.00000     0.72407    0.00226     0.72633
     Cl    7    0.02838      9.99967     6.95181    0.02014    16.97162
      H    8    0.51811      0.00000     0.47786    0.00403     0.48189
 =======================================================================
   * Total *    0.00000     27.99730    35.83165    0.17105    64.00000

 Normal termination of Gaussian 16 at Mon Feb 18 12:23:44 2019.
