 Gaussian 16, Revision B.01,
 Gaussian 16:  ES64L-G16RevB.01 20-Dec-2017

 -------------------------------------------------
 # opt=modredundant b3lyp/sto-3g geom=connectivity
 -------------------------------------------------

 -------------------
 Title Card Required
 -------------------
 Symbolic Z-matrix:
 Charge =  0 Multiplicity = 1

 SCF Done:  E(RB3LYP) =  -78.8762351480     A.U. after    7 cycles
 SCF Done:  E(RB3LYP) =  -78.8814495809     A.U. after    7 cycles
 SCF Done:  E(RB3LYP) =  -78.8817098595     A.U. after    7 cycles
 SCF Done:  E(RB3LYP) =  -78.8817210521     A.U. after    5 cycles
 Optimization completed.
    -- Stationary point found.
 SCF Done:  E(RB3LYP) =  -78.8801011409     A.U. after    7 cycles
 SCF Done:  E(RB3LYP) =  -78.8819011447     A.U. after    8 cycles
 SCF Done:  E(RB3LYP) =  -78.8820183685     A.U. after    7 cycles
 SCF Done:  E(RB3LYP) =  -78.8820199468     A.U. after    6 cycles
 Optimization completed.
 SCF Done:  E(RB3LYP) =  -78.8809729227     A.U. after    7 cycles
 SCF Done:  E(RB3LYP) =  -78.8827813996     A.U. after    8 cycles
 SCF Done:  E(RB3LYP) =  -78.8838810830     A.U. after    7 cycles
 SCF Done:  E(RB3LYP) =  -78.8811295348     A.U. after    7 cycles
 SCF Done:  E(RB3LYP) =  -78.8827709595     A.U. after    8 cycles
 SCF Done:  E(RB3LYP) =  -78.8828203901     A.U. after    7 cycles
 SCF Done:  E(RB3LYP) =  -78.8802031526     A.U. after    8 cycles
 SCF Done:  E(RB3LYP) =  -78.8819587060     A.U. after    8 cycles
 SCF Done:  E(RB3LYP) =  -78.8820199227     A.U. after    7 cycles
    -- Stationary point found.
 SCF Done:  E(RB3LYP) =  -78.8798151321     A.U. after    7 cycles
 SCF Done:  E(RB3LYP) =  -78.8816558558     A.U. after    8 cycles
 SCF Done:  E(RB3LYP) =  -78.8817212740     A.U. after    6 cycles
 Optimization completed.
    -- Stationary point found.

                         Standard orientation:
 ---------------------------------------------------------------------
 Center     Atomic      Atomic             Coordinates (Angstroms)
 Number     Number       Type             X           Y           Z
 ---------------------------------------------------------------------
      1          6           0       -0.781661   -0.000009   -0.000040
      2          1           0       -1.178014   -0.888762   -0.512838
      3          1           0       -1.178251    0.888631   -0.512964
      4          1           0       -1.178291   -0.000012    1.026043
      5          6           0        0.781661    0.000009   -0.000040
      6          1           0        1.178014    0.888763   -0.512837
      7          1           0        1.178291    0.000010    1.026043
      8          1           0        1.178251   -0.888630   -0.512966
 ---------------------------------------------------------------------

 The electronic state is 1-A.
 Alpha  occ. eigenvalues --  -10.00263 -10.00157  -0.70929  -0.58462  -0.39915
 Alpha  occ. eigenvalues --   -0.39906  -0.32230  -0.30863  -0.30854
 Alpha virt. eigenvalues --    0.38703   0.38718   0.40977   0.46692   0.51037
 Alpha virt. eigenvalues --    0.52859   0.52876

 Mulliken charges:
               1
     1  C   -0.218261
     2  H    0.072764
     3  H    0.072757
     4  H    0.072740
     5  C   -0.218261
     6  H    0.072764
     7  H    0.072740
     8  H    0.072757
 Sum of Mulliken charges =   0.00000

 Dipole moment (field-independent basis, Debye):
    X=             -0.0000    Y=             -0.0000    Z=              0.0001  Tot=              0.0001
 Quadrupole moment (field-independent basis, Debye-Ang):
   XX=            -14.0831   YY=            -13.8056   ZZ=            -13.8071
   XY=             -0.0002   XZ=             -0.0000   YZ=              0.0000

 Normal termination of Gaussian 16 at Mon Oct 14 21:00:49 2019.
