 Gaussian 16, Revision B.01,
 Gaussian 16:  EM64L-G16RevB.01 20-Dec-2017

 --------------------------------
 #n B3LYP/6-31+G(d,p) Opt Pop=NPA
 --------------------------------

 -----
 eteno
 -----
 Symbolic Z-matrix:
 Charge =  0 Multiplicity = 1

 SCF Done:  E(RB3LYP) =  -78.5991834052     A.U. after    8 cycles
 SCF Done:  E(RB3LYP) =  -78.5995993299     A.U. after    6 cycles
 SCF Done:  E(RB3LYP) =  -78.5996443444     A.U. after    6 cycles
 Optimization completed.
    -- Stationary point found.

                         Standard orientation:
 ---------------------------------------------------------------------
 Center     Atomic      Atomic             Coordinates (Angstroms)
 Number     Number       Type             X           Y           Z
 ---------------------------------------------------------------------
      1          6           0       -0.000000    0.667249    0.000000
      2          6           0        0.000000   -0.667249   -0.000000
      3          1           0       -0.924538    1.238672    0.000000
      4          1           0        0.924537    1.238673   -0.000000
      5          1           0       -0.924537   -1.238673   -0.000000
      6          1           0        0.924538   -1.238672    0.000000
 ---------------------------------------------------------------------

 The electronic state is 1-AG.
 Alpha  occ. eigenvalues --  -10.19578 -10.19491  -0.76508  -0.58535  -0.47297
 Alpha  occ. eigenvalues --   -0.42508  -0.36082  -0.27822
 Alpha virt. eigenvalues --   -0.00959   0.02466   0.03246   0.04669   0.06927
 Alpha virt. eigenvalues --    0.08649   0.08717   0.12828   0.15733   0.18051
 Alpha virt. eigenvalues --    0.19191   0.24815   0.34584   0.35049   0.56814

 Mulliken charges:
               1
     1  C   -0.271861
     2  C   -0.271861
     3  H    0.135930
     4  H    0.135931
     5  H    0.135931
     6  H    0.135930
 Sum of Mulliken charges =   0.00000

 Dipole moment (field-independent basis, Debye):
    X=              0.0000    Y=             -0.0000    Z=              0.0000  Tot=              0.0000
 Quadrupole moment (field-independent basis, Debye-Ang):
   XX=            -12.4465   YY=            -12.4076   ZZ=            -15.9928
   XY=              0.0000   XZ=              0.0000   YZ=              0.0000

 Summary of Natural Population Analysis:

                                       Natural Population
                Natural  -----------------------------------------------
    Atom  No    Charge         Core      Valence    Rydberg      Total
 -----------------------------------------------------------------------
      C    1   -0.44616      1.99926     4.43236    0.01455     6.44616
      C    2   -0.44616      1.99926     4.43236    0.01455     6.44616
      H    3    0.22308      0.00000     0.77539    0.00153     0.77692
      H    4    0.22308      0.00000     0.77539    0.00153     0.77692
      H    5    0.22308      0.00000     0.77539    0.00153     0.77692
      H    6    0.22308      0.00000     0.77539    0.00153     0.77692
 =======================================================================
   * Total *   -0.00000      3.99851    11.96628    0.03520    16.00000

 Normal termination of Gaussian 16 at Mon Feb 18 11:24:04 2019.
