 Gaussian 16, Revision B.01,
 Gaussian 16:  EM64L-G16RevB.01 20-Dec-2017

 --------------------------------
 #n B3LYP/6-31+G(d,p) Opt Pop=NPA
 --------------------------------

 -----
 etano
 -----
 Symbolic Z-matrix:
 Charge =  0 Multiplicity = 1

 SCF Done:  E(RB3LYP) =  -79.8399627811     A.U. after    7 cycles
 SCF Done:  E(RB3LYP) =  -79.8416166215     A.U. after    7 cycles
 SCF Done:  E(RB3LYP) =  -79.8416434818     A.U. after    6 cycles
 Optimization completed.
    -- Stationary point found.

                         Standard orientation:
 ---------------------------------------------------------------------
 Center     Atomic      Atomic             Coordinates (Angstroms)
 Number     Number       Type             X           Y           Z
 ---------------------------------------------------------------------
      1          6           0       -0.766544   -0.006737   -0.000002
      2          6           0        0.766544    0.006737    0.000002
      3          1           0       -1.157473   -0.812905   -0.630210
      4          1           0       -1.172851    0.936855   -0.380059
      5          1           0       -1.163259   -0.154653    1.010261
      6          1           0        1.163259    0.154653   -1.010261
      7          1           0        1.172851   -0.936855    0.380059
      8          1           0        1.157473    0.812905    0.630210
 ---------------------------------------------------------------------

 The electronic state is 1-AG.
 Alpha  occ. eigenvalues --  -10.17804 -10.17783  -0.75289  -0.61719  -0.43473
 Alpha  occ. eigenvalues --   -0.43473  -0.36823  -0.34464  -0.34464
 Alpha virt. eigenvalues --    0.01749   0.03030   0.05369   0.05369   0.08040
 Alpha virt. eigenvalues --    0.08966   0.08966   0.14269   0.19580   0.19580
 Alpha virt. eigenvalues --    0.19801   0.19801   0.25456   0.29764   0.32692

 Mulliken charges:
               1
     1  C   -0.434436
     2  C   -0.434436
     3  H    0.144812
     4  H    0.144812
     5  H    0.144812
     6  H    0.144812
     7  H    0.144812
     8  H    0.144812
 Sum of Mulliken charges =  -0.00000

 Dipole moment (field-independent basis, Debye):
    X=              0.0000    Y=              0.0000    Z=             -0.0000  Tot=              0.0000
 Quadrupole moment (field-independent basis, Debye-Ang):
   XX=            -15.7674   YY=            -15.0736   ZZ=            -15.0736
   XY=             -0.0061   XZ=              0.0000   YZ=              0.0000

 Summary of Natural Population Analysis:

                                       Natural Population
                Natural  -----------------------------------------------
    Atom  No    Charge         Core      Valence    Rydberg      Total
 -----------------------------------------------------------------------
      C    1   -0.70625      1.99958     4.70057    0.00610     6.70625
      C    2   -0.70625      1.99958     4.70057    0.00610     6.70625
      H    3    0.23542      0.00000     0.76345    0.00113     0.76458
      H    4    0.23542      0.00000     0.76345    0.00113     0.76458
      H    5    0.23542      0.00000     0.76345    0.00113     0.76458
      H    6    0.23542      0.00000     0.76345    0.00113     0.76458
      H    7    0.23542      0.00000     0.76345    0.00113     0.76458
      H    8    0.23542      0.00000     0.76345    0.00113     0.76458
 =======================================================================
   * Total *   -0.00000      3.99917    13.98184    0.01899    18.00000

 Normal termination of Gaussian 16 at Mon Feb 18 11:25:41 2019.
