 Gaussian 16, Revision B.01,
 Gaussian 16:  EM64L-G16RevB.01 20-Dec-2017

 ------------------------
 #p B3LYP/6-31+G(d,p) Opt
 ------------------------

 -------
 Benceno
 -------
 Symbolic Z-matrix:
 Charge =  0 Multiplicity = 1

 SCF Done:  E(RB3LYP) =  -232.268322060     A.U. after    9 cycles
 SCF Done:  E(RB3LYP) =  -232.268388888     A.U. after    8 cycles
 Optimization completed.
    -- Stationary point found.

                         Standard orientation:
 ---------------------------------------------------------------------
 Center     Atomic      Atomic             Coordinates (Angstroms)
 Number     Number       Type             X           Y           Z
 ---------------------------------------------------------------------
      1          6           0       -0.699179   -1.211015    0.000000
      2          6           0        0.699179   -1.211012    0.000000
      3          6           0       -1.398358   -0.000000    0.000000
      4          6           0       -0.699179    1.211013    0.000000
      5          6           0        0.699179    1.211015    0.000000
      6          6           0        1.398359    0.000000    0.000000
      7          1           0       -1.242423   -2.151940    0.000000
      8          1           0       -2.484844   -0.000001    0.000000
      9          1           0        2.484844    0.000003    0.000000
     10          1           0        1.242423   -2.151937    0.000000
     11          1           0       -1.242423    2.151938    0.000000
     12          1           0        1.242425    2.151938    0.000000
 ---------------------------------------------------------------------

 The electronic state is 1-A'.
 Alpha  occ. eigenvalues --  -10.19882 -10.19856 -10.19856 -10.19801 -10.19801
 Alpha  occ. eigenvalues --  -10.19774  -0.85701  -0.74990  -0.74990  -0.60669
 Alpha  occ. eigenvalues --   -0.60669  -0.52660  -0.46648  -0.44880  -0.42578
 Alpha  occ. eigenvalues --   -0.42578  -0.36974  -0.34894  -0.34894  -0.25763
 Alpha  occ. eigenvalues --   -0.25763
 Alpha virt. eigenvalues --   -0.01548  -0.01548   0.00844   0.02563   0.02563
 Alpha virt. eigenvalues --    0.04540   0.04540   0.06656   0.07778   0.07943
 Alpha virt. eigenvalues --    0.09203   0.09203   0.09904   0.12484   0.14273

 Mulliken charges:
               1
     1  C   -0.124079
     2  C   -0.124078
     3  C   -0.124084
     4  C   -0.124079
     5  C   -0.124078
     6  C   -0.124085
     7  H    0.124081
     8  H    0.124080
     9  H    0.124080
    10  H    0.124081
    11  H    0.124081
    12  H    0.124081
 Sum of Mulliken charges =  -0.00000

 Dipole moment (field-independent basis, Debye):
    X=              0.0000    Y=              0.0000    Z=              0.0000  Tot=              0.0000
 Quadrupole moment (field-independent basis, Debye-Ang):
   XX=            -32.2465   YY=            -32.2465   ZZ=            -40.3462
   XY=              0.0000   XZ=              0.0000   YZ=              0.0000

 Normal termination of Gaussian 16 at Tue Mar 26 11:37:29 2019.
