 Gaussian 16, Revision B.01,
 Gaussian 16:  EM64L-G16RevB.01 20-Dec-2017

 ---------------------------------------------
 #p opt=modredundant B3LYP/6-31+G(d,p) Pop=NPA
 ---------------------------------------------

 --
 H2
 --
 Symbolic Z-matrix:
 Charge =  0 Multiplicity = 1

 SCF Done:  E(RB3LYP) = -0.927706825692     A.U. after    6 cycles
 Optimization completed.
    -- Stationary point found.
 SCF Done:  E(RB3LYP) = -0.931734810756     A.U. after    5 cycles
 Optimization completed.
 SCF Done:  E(RB3LYP) = -0.936220520568     A.U. after    5 cycles
 SCF Done:  E(RB3LYP) = -0.941208764655     A.U. after    6 cycles
 SCF Done:  E(RB3LYP) = -0.946748221477     A.U. after    6 cycles
 SCF Done:  E(RB3LYP) = -0.952891822182     A.U. after    6 cycles
 SCF Done:  E(RB3LYP) = -0.959696821540     A.U. after    6 cycles
 SCF Done:  E(RB3LYP) = -0.967224446897     A.U. after    6 cycles
 SCF Done:  E(RB3LYP) = -0.975539145646     A.U. after    6 cycles
 SCF Done:  E(RB3LYP) = -0.984707045957     A.U. after    5 cycles
 SCF Done:  E(RB3LYP) =  -1.13150202231     A.U. after    5 cycles
 SCF Done:  E(RB3LYP) =  -1.14919176475     A.U. after    5 cycles
 SCF Done:  E(RB3LYP) =  -1.16479498984     A.U. after    5 cycles
 SCF Done:  E(RB3LYP) =  -1.17581586654     A.U. after    6 cycles
 SCF Done:  E(RB3LYP) =  -1.17779093982     A.U. after    6 cycles
 SCF Done:  E(RB3LYP) =  -1.16250103696     A.U. after    6 cycles
 SCF Done:  E(RB3LYP) =  -1.11397088128     A.U. after    5 cycles
 SCF Done:  E(RB3LYP) = -0.998369600713     A.U. after    6 cycles
 SCF Done:  E(RB3LYP) = -0.734757569674     A.U. after    7 cycles
    -- Stationary point found.
 SCF Done:  E(RB3LYP) = -0.848568605159E-01 A.U. after    7 cycles
 Optimization completed.
    -- Stationary point found.

                         Standard orientation:
 ---------------------------------------------------------------------
 Center     Atomic      Atomic             Coordinates (Angstroms)
 Number     Number       Type             X           Y           Z
 ---------------------------------------------------------------------
      1          1           0        0.000000    0.000000    0.105365
      2          1           0        0.000000   -0.000000   -0.105365
 ---------------------------------------------------------------------

 The electronic state is 1-SGG.
 Alpha  occ. eigenvalues --   -0.58843
 Alpha virt. eigenvalues --    0.22272   0.39238   1.79452   1.79452   1.88736
 Alpha virt. eigenvalues --    3.06458   3.18348   3.18348  13.07597

 Mulliken charges:
               1
     1  H   -0.000000
     2  H   -0.000000
 Sum of Mulliken charges =  -0.00000

 Dipole moment (field-independent basis, Debye):
    X=             -0.0000    Y=              0.0000    Z=             -0.0000  Tot=              0.0000
 Quadrupole moment (field-independent basis, Debye-Ang):
   XX=             -1.2609   YY=             -1.2609   ZZ=             -1.1560
   XY=              0.0000   XZ=             -0.0000   YZ=             -0.0000

 Summary of Natural Population Analysis:

                                       Natural Population
                Natural  -----------------------------------------------
    Atom  No    Charge         Core      Valence    Rydberg      Total
 -----------------------------------------------------------------------
      H    1   -0.00000      0.00000     0.99932    0.00068     1.00000
      H    2   -0.00000      0.00000     0.99932    0.00068     1.00000
 =======================================================================
   * Total *   -0.00000      0.00000     1.99863    0.00137     2.00000

 Normal termination of Gaussian 16 at Mon Mar  4 11:45:43 2019.
