 Gaussian 16, Revision B.01,
 Gaussian 16:  EM64L-G16RevB.01 20-Dec-2017

 --------------------------------
 #p B3LYP/6-31+G(d,p) Opt Pop=NPA
 --------------------------------

 -----------------
 acidocloroacetico
 -----------------
 Symbolic Z-matrix:
 Charge =  0 Multiplicity = 1

 SCF Done:  E(RB3LYP) =  -688.681102793     A.U. after   12 cycles
 SCF Done:  E(RB3LYP) =  -688.686765235     A.U. after   11 cycles
 SCF Done:  E(RB3LYP) =  -688.687074236     A.U. after   10 cycles
 SCF Done:  E(RB3LYP) =  -688.687084882     A.U. after    9 cycles
 SCF Done:  E(RB3LYP) =  -688.687085964     A.U. after    9 cycles
 Optimization completed.
    -- Stationary point found.

                         Standard orientation:
 ---------------------------------------------------------------------
 Center     Atomic      Atomic             Coordinates (Angstroms)
 Number     Number       Type             X           Y           Z
 ---------------------------------------------------------------------
      1          6           0        1.076471   -0.022404   -0.000266
      2          8           0        2.148921   -0.575585    0.000140
      3          8           0        0.957267    1.313128    0.000019
      4          6           0       -0.194559   -0.875547   -0.000047
      5          1           0        0.017767    1.569897    0.000011
      6          1           0       -0.187285   -1.506606   -0.888960
      7         17           0       -1.752021    0.054737    0.000035
      8          1           0       -0.187112   -1.506464    0.888968
 ---------------------------------------------------------------------

 The electronic state is 1-A.
 Alpha  occ. eigenvalues -- -101.58233 -19.23077 -19.17072 -10.35806 -10.29267
 Alpha  occ. eigenvalues --   -9.49828  -7.26214  -7.25287  -7.25204  -1.13610
 Alpha  occ. eigenvalues --   -1.05417  -0.89586  -0.74792  -0.64742  -0.56070
 Alpha  occ. eigenvalues --   -0.51935  -0.48906  -0.44977  -0.44480  -0.41255
 Alpha  occ. eigenvalues --   -0.36037  -0.35369  -0.33449  -0.30356
 Alpha virt. eigenvalues --   -0.02656  -0.02545  -0.01327   0.02694   0.03947
 Alpha virt. eigenvalues --    0.04777   0.06407   0.07446   0.07949   0.08063
 Alpha virt. eigenvalues --    0.09008   0.11004   0.11793   0.14012   0.18527

 Mulliken charges:
               1
     1  C    0.351788
     2  O   -0.413756
     3  O   -0.385236
     4  C   -0.313719
     5  H    0.339525
     6  H    0.232900
     7  Cl  -0.044425
     8  H    0.232923
 Sum of Mulliken charges =  -0.00000

 Dipole moment (field-independent basis, Debye):
    X=             -2.8713    Y=             -0.4719    Z=             -0.0007  Tot=              2.9099
 Quadrupole moment (field-independent basis, Debye-Ang):
   XX=            -47.0373   YY=            -34.0484   ZZ=            -34.9557
   XY=             -0.0840   XZ=             -0.0012   YZ=              0.0000

 Summary of Natural Population Analysis:

                                       Natural Population
                Natural  -----------------------------------------------
    Atom  No    Charge         Core      Valence    Rydberg      Total
 -----------------------------------------------------------------------
      C    1    0.79185      1.99940     3.16439    0.04436     5.20815
      O    2   -0.56927      1.99977     6.54295    0.02655     8.56927
      O    3   -0.70447      1.99975     6.68412    0.02060     8.70447
      C    4   -0.56199      1.99917     4.54791    0.01492     6.56199
      H    5    0.52220      0.00000     0.47234    0.00545     0.47780
      H    6    0.29475      0.00000     0.70376    0.00149     0.70525
     Cl    7   -0.06783      9.99976     7.04985    0.01823    17.06783
      H    8    0.29477      0.00000     0.70374    0.00149     0.70523
 =======================================================================
   * Total *   -0.00000     17.99785    29.86906    0.13310    48.00000

 Normal termination of Gaussian 16 at Mon Feb 25 12:10:09 2019.
