 Gaussian 16, Revision B.01,
 Gaussian 16:  EM64L-G16RevB.01 20-Dec-2017

 --------------------------------
 #n B3LYP/6-31+G(d,p) Opt Pop=NPA
 --------------------------------

 --
 HF
 --
 Symbolic Z-matrix:
 Charge =  0 Multiplicity = 1

 SCF Done:  E(RB3LYP) =  -100.448263619     A.U. after    9 cycles
 SCF Done:  E(RB3LYP) =  -100.451363885     A.U. after    7 cycles
 SCF Done:  E(RB3LYP) =  -100.451369897     A.U. after    6 cycles
 Optimization completed.
    -- Stationary point found.

                         Standard orientation:
 ---------------------------------------------------------------------
 Center     Atomic      Atomic             Coordinates (Angstroms)
 Number     Number       Type             X           Y           Z
 ---------------------------------------------------------------------
      1          9           0        0.000000    0.000000    0.092782
      2          1           0        0.000000    0.000000   -0.835034
 ---------------------------------------------------------------------

 The electronic state is 1-SG.
 Alpha  occ. eigenvalues --  -24.71680  -1.21105  -0.55785  -0.42232  -0.42232
 Alpha virt. eigenvalues --    0.04094   0.18994   0.20092   0.20092   0.25033
 Alpha virt. eigenvalues --    0.90550   1.43226   1.43226   1.47679   1.60564
 Alpha virt. eigenvalues --    1.60564   1.60827   1.83591   1.83591   2.52803

 Mulliken charges:
               1
     1  F   -0.400444
     2  H    0.400444
 Sum of Mulliken charges =  -0.00000

 Dipole moment (field-independent basis, Debye):
    X=              0.0000    Y=              0.0000    Z=             -1.9947  Tot=              1.9947
 Quadrupole moment (field-independent basis, Debye-Ang):
   XX=             -5.9260   YY=             -5.9260   ZZ=             -3.7313
   XY=              0.0000   XZ=              0.0000   YZ=              0.0000

 Summary of Natural Population Analysis:

                                       Natural Population
                Natural  -----------------------------------------------
    Atom  No    Charge         Core      Valence    Rydberg      Total
 -----------------------------------------------------------------------
      F    1   -0.58127      1.99997     7.57428    0.00702     9.58127
      H    2    0.58127      0.00000     0.41548    0.00325     0.41873
 =======================================================================
   * Total *   -0.00000      1.99997     7.98976    0.01026    10.00000

 Normal termination of Gaussian 16 at Mon Feb 11 12:13:02 2019.
