 Gaussian 16, Revision B.01,
 Gaussian 16:  EM64L-G16RevB.01 20-Dec-2017

 --------------------------------
 #n B3LYP/6-31+G(d,p) Opt Pop=NPA
 --------------------------------

 ------------
 acidoacetico
 ------------
 Symbolic Z-matrix:
 Charge =  0 Multiplicity = 1

 SCF Done:  E(RB3LYP) =  -229.090661039     A.U. after   11 cycles
 SCF Done:  E(RB3LYP) =  -229.095103723     A.U. after   10 cycles
 SCF Done:  E(RB3LYP) =  -229.095391716     A.U. after    9 cycles
 SCF Done:  E(RB3LYP) =  -229.095414765     A.U. after    9 cycles
 SCF Done:  E(RB3LYP) =  -229.095416671     A.U. after    8 cycles
 Optimization completed.
    -- Stationary point found.

                         Standard orientation:
 ---------------------------------------------------------------------
 Center     Atomic      Atomic             Coordinates (Angstroms)
 Number     Number       Type             X           Y           Z
 ---------------------------------------------------------------------
      1          6           0       -0.119919    0.135515   -0.000177
      2          6           0        1.370515   -0.161824    0.000022
      3          8           0       -0.572528    1.253162    0.000053
      4          8           0       -0.963099   -0.935805    0.000028
      5          1           0        1.816667    0.306613   -0.881449
      6          1           0        1.617006   -1.227205    0.000060
      7          1           0        1.816462    0.306623    0.881594
      8          1           0       -0.468694   -1.767036    0.000074
 ---------------------------------------------------------------------

 The electronic state is 1-A.
 Alpha  occ. eigenvalues --  -19.21663 -19.15240 -10.33903 -10.22264  -1.11611
 Alpha  occ. eigenvalues --   -1.03494  -0.76852  -0.63357  -0.52991  -0.48162
 Alpha  occ. eigenvalues --   -0.47836  -0.43427  -0.40996  -0.39017  -0.33190
 Alpha  occ. eigenvalues --   -0.28955
 Alpha virt. eigenvalues --   -0.01648  -0.00963   0.02229   0.04385   0.04455
 Alpha virt. eigenvalues --    0.07098   0.07772   0.08975   0.11220   0.13867
 Alpha virt. eigenvalues --    0.15384   0.17768   0.18812   0.21688   0.22304

 Mulliken charges:
               1
     1  C    0.407340
     2  C   -0.424821
     3  O   -0.427727
     4  O   -0.417576
     5  H    0.197408
     6  H    0.130964
     7  H    0.197426
     8  H    0.336986
 Sum of Mulliken charges =   0.00000

 Dipole moment (field-independent basis, Debye):
    X=              3.2090    Y=             -3.3099    Z=             -0.0002  Tot=              4.6101
 Quadrupole moment (field-independent basis, Debye-Ang):
   XX=            -25.5418   YY=            -23.7383   ZZ=            -23.3975
   XY=              0.9223   XZ=              0.0003   YZ=             -0.0003

 Summary of Natural Population Analysis:

                                       Natural Population
                Natural  -----------------------------------------------
    Atom  No    Charge         Core      Valence    Rydberg      Total
 -----------------------------------------------------------------------
      C    1    0.79920      1.99950     3.15795    0.04335     5.20080
      C    2   -0.81053      1.99939     4.80352    0.00762     6.81053
      O    3   -0.57947      1.99977     6.55391    0.02579     8.57947
      O    4   -0.71972      1.99977     6.70108    0.01887     8.71972
      H    5    0.28025      0.00000     0.71872    0.00102     0.71975
      H    6    0.23690      0.00000     0.76188    0.00122     0.76310
      H    7    0.28026      0.00000     0.71871    0.00102     0.71974
      H    8    0.51310      0.00000     0.48309    0.00381     0.48690
 =======================================================================
   * Total *    0.00000      7.99843    23.89886    0.10271    32.00000

 Normal termination of Gaussian 16 at Mon Feb 18 12:18:51 2019.
