 Gaussian 16, Revision B.01,
 Gaussian 16:  EM64L-G16RevB.01 20-Dec-2017

 --------------------------------
 #n B3LYP/6-31+G(d,p) Opt Pop=NPA
 --------------------------------

 -----
 etino
 -----
 Symbolic Z-matrix:
 Charge =  0 Multiplicity = 1

 SCF Done:  E(RB3LYP) =  -77.3370256173     A.U. after    8 cycles
 SCF Done:  E(RB3LYP) =  -77.3371367966     A.U. after    7 cycles
 SCF Done:  E(RB3LYP) =  -77.3371376100     A.U. after    5 cycles
 Optimization completed.
    -- Stationary point found.

                         Standard orientation:
 ---------------------------------------------------------------------
 Center     Atomic      Atomic             Coordinates (Angstroms)
 Number     Number       Type             X           Y           Z
 ---------------------------------------------------------------------
      1          6           0        0.000000   -0.000000    0.604030
      2          6           0        0.000000   -0.000000   -0.604030
      3          1           0        0.000000   -0.000000    1.670499
      4          1           0        0.000000   -0.000000   -1.670499
 ---------------------------------------------------------------------

 The electronic state is 1-SGG.
 Alpha  occ. eigenvalues --  -10.20803 -10.20566  -0.75803  -0.57531  -0.50253
 Alpha  occ. eigenvalues --   -0.29707  -0.29707
 Alpha virt. eigenvalues --    0.01291   0.01291   0.02163   0.02338   0.06923
 Alpha virt. eigenvalues --    0.06923   0.07392   0.13820   0.13820   0.15425
 Alpha virt. eigenvalues --    0.18702   0.25422   0.52762   0.65718   0.65718

 Mulliken charges:
               1
     1  C   -0.185619
     2  C   -0.185619
     3  H    0.185619
     4  H    0.185619
 Sum of Mulliken charges =   0.00000

 Dipole moment (field-independent basis, Debye):
    X=              0.0000    Y=             -0.0000    Z=              0.0000  Tot=              0.0000
 Quadrupole moment (field-independent basis, Debye-Ang):
   XX=            -13.8822   YY=            -13.8822   ZZ=             -7.0398
   XY=              0.0000   XZ=             -0.0000   YZ=             -0.0000

 Summary of Natural Population Analysis:

                                       Natural Population
                Natural  -----------------------------------------------
    Atom  No    Charge         Core      Valence    Rydberg      Total
 -----------------------------------------------------------------------
      C    1   -0.24897      1.99872     4.24261    0.00764     6.24897
      C    2   -0.24897      1.99872     4.24261    0.00764     6.24897
      H    3    0.24897      0.00000     0.74947    0.00156     0.75103
      H    4    0.24897      0.00000     0.74947    0.00156     0.75103
 =======================================================================
   * Total *   -0.00000      3.99743     9.98416    0.01840    14.00000

 Normal termination of Gaussian 16 at Mon Feb 18 11:24:18 2019.
