 Gaussian 16, Revision B.01,
 Gaussian 16:  ES64L-G16RevB.01 20-Dec-2017

 ------------------------------------------------
 # opt=modredundant b3lyp/3-21g geom=connectivity
 ------------------------------------------------

 -------------------
 Title Card Required
 -------------------
 Symbolic Z-matrix:
 Charge =  0 Multiplicity = 1

 SCF Done:  E(RB3LYP) =  -157.597486523     A.U. after   11 cycles
 SCF Done:  E(RB3LYP) =  -157.603242363     A.U. after   10 cycles
 SCF Done:  E(RB3LYP) =  -157.603466882     A.U. after    8 cycles
 SCF Done:  E(RB3LYP) =  -157.603488240     A.U. after    7 cycles
 Optimization completed.
    -- Stationary point found.
 SCF Done:  E(RB3LYP) =  -157.601606578     A.U. after    9 cycles
 SCF Done:  E(RB3LYP) =  -157.603081912     A.U. after    9 cycles
 SCF Done:  E(RB3LYP) =  -157.603149396     A.U. after    8 cycles
 SCF Done:  E(RB3LYP) =  -157.603150324     A.U. after    7 cycles
 Optimization completed.
 SCF Done:  E(RB3LYP) =  -157.600614764     A.U. after    9 cycles
 SCF Done:  E(RB3LYP) =  -157.602180738     A.U. after   10 cycles
 SCF Done:  E(RB3LYP) =  -157.600485509     A.U. after   10 cycles
 SCF Done:  E(RB3LYP) =  -157.602179611     A.U. after   10 cycles
 SCF Done:  E(RB3LYP) =  -157.602207447     A.U. after    7 cycles
 SCF Done:  E(RB3LYP) =  -157.601537544     A.U. after    9 cycles
 SCF Done:  E(RB3LYP) =  -157.603124539     A.U. after   10 cycles
 SCF Done:  E(RB3LYP) =  -157.603147408     A.U. after    8 cycles
 SCF Done:  E(RB3LYP) =  -157.603147541     A.U. after    6 cycles
    -- Stationary point found.
 SCF Done:  E(RB3LYP) =  -157.601940094     A.U. after    9 cycles
 SCF Done:  E(RB3LYP) =  -157.603465635     A.U. after   10 cycles
 SCF Done:  E(RB3LYP) =  -157.603488498     A.U. after    8 cycles
 Optimization completed.
    -- Stationary point found.

                         Standard orientation:
 ---------------------------------------------------------------------
 Center     Atomic      Atomic             Coordinates (Angstroms)
 Number     Number       Type             X           Y           Z
 ---------------------------------------------------------------------
      1          6           0       -1.967295    0.122940    0.000138
      2          1           0       -2.755468   -0.638213   -0.000482
      3          1           0       -2.099192    0.753712   -0.886959
      4          1           0       -2.099369    0.752470    0.888064
      5          6           0       -0.566232   -0.525239   -0.000130
      6          1           0       -0.457849   -1.168422   -0.883780
      7          1           0       -0.457685   -1.168943    0.883105
      8          6           0        0.566221    0.525204   -0.000132
      9          1           0        0.457641    1.168856    0.883134
     10          1           0        0.457705    1.168406   -0.883746
     11          6           0        1.967318   -0.122910    0.000133
     12          1           0        2.099320   -0.753550   -0.887037
     13          1           0        2.755458    0.638270   -0.000336
     14          1           0        2.099369   -0.752558    0.887983
 ---------------------------------------------------------------------

 The electronic state is 1-A.
 Alpha  occ. eigenvalues --  -10.11144 -10.11078 -10.10445 -10.10420  -0.78771
 Alpha  occ. eigenvalues --   -0.71854  -0.62606  -0.57205  -0.46515  -0.42248
 Alpha  occ. eigenvalues --   -0.41460  -0.40758  -0.36495  -0.34747  -0.32823
 Alpha  occ. eigenvalues --   -0.31920  -0.31730
 Alpha virt. eigenvalues --    0.11812   0.14576   0.15335   0.16673   0.18997
 Alpha virt. eigenvalues --    0.20356   0.20390   0.21062   0.21988   0.22283
 Alpha virt. eigenvalues --    0.25870   0.27422   0.27487   0.68408   0.68429

 Mulliken charges:
               1
     1  C   -0.551203
     2  H    0.184877
     3  H    0.184746
     4  H    0.184757
     5  C   -0.370592
     6  H    0.183708
     7  H    0.183704
     8  C   -0.370589
     9  H    0.183708
    10  H    0.183709
    11  C   -0.551210
    12  H    0.184748
    13  H    0.184880
    14  H    0.184757
 Sum of Mulliken charges =  -0.00000

 Dipole moment (field-independent basis, Debye):
    X=             -0.0000    Y=             -0.0000    Z=             -0.0000  Tot=              0.0000
 Quadrupole moment (field-independent basis, Debye-Ang):
   XX=            -28.6550   YY=            -28.3027   ZZ=            -27.9031
   XY=              0.1851   XZ=              0.0001   YZ=             -0.0000

 Normal termination of Gaussian 16 at Mon Oct 14 21:30:50 2019.
