 Gaussian 16, Revision B.01,
 Gaussian 16:  EM64L-G16RevB.01 20-Dec-2017

 --------------------------------
 #n B3LYP/6-31+G(d,p) Opt Pop=NPA
 --------------------------------

 ---
 HBr
 ---
 Symbolic Z-matrix:
 Charge =  0 Multiplicity = 1

 SCF Done:  E(RB3LYP) =  -2572.31532337     A.U. after    9 cycles
 SCF Done:  E(RB3LYP) =  -2572.31978582     A.U. after    9 cycles
 SCF Done:  E(RB3LYP) =  -2572.31983150     A.U. after    7 cycles
 Optimization completed.
    -- Stationary point found.

                         Standard orientation:
 ---------------------------------------------------------------------
 Center     Atomic      Atomic             Coordinates (Angstroms)
 Number     Number       Type             X           Y           Z
 ---------------------------------------------------------------------
      1         35           0        0.000000    0.000000    0.039451
      2          1           0        0.000000    0.000000   -1.380785
 ---------------------------------------------------------------------

 The electronic state is 1-SG.
 Alpha  occ. eigenvalues -- -482.93462 -61.89578 -56.41501 -56.41115 -56.41115
 Alpha  occ. eigenvalues --   -8.60553  -6.55886  -6.54589  -6.54589  -2.67478
 Alpha  occ. eigenvalues --   -2.67063  -2.67063  -2.66036  -2.66036  -0.79699
 Alpha  occ. eigenvalues --   -0.45265  -0.31122  -0.31122
 Alpha virt. eigenvalues --   -0.02674   0.04069   0.04281   0.05316   0.05316
 Alpha virt. eigenvalues --    0.38548   0.42148   0.42148   0.46026   0.46026
 Alpha virt. eigenvalues --    0.49835   0.59524   0.59524   0.61577   1.00550

 Mulliken charges:
               1
     1  Br  -0.202138
     2  H    0.202138
 Sum of Mulliken charges =   0.00000

 Dipole moment (field-independent basis, Debye):
    X=              0.0000    Y=              0.0000    Z=             -1.0597  Tot=              1.0597
 Quadrupole moment (field-independent basis, Debye-Ang):
   XX=            -20.2207   YY=            -20.2207   ZZ=            -15.6918
   XY=              0.0000   XZ=              0.0000   YZ=              0.0000

 Summary of Natural Population Analysis:

                                       Natural Population
                Natural  -----------------------------------------------
    Atom  No    Charge         Core      Valence    Rydberg      Total
 -----------------------------------------------------------------------
     Br    1   -0.21144     27.99943     7.19451    0.01750    35.21144
      H    2    0.21144      0.00000     0.78492    0.00364     0.78856
 =======================================================================
   * Total *   -0.00000     27.99943     7.97944    0.02114    36.00000

 Normal termination of Gaussian 16 at Mon Feb 11 12:09:05 2019.
