 Gaussian 16, Revision B.01,
 Gaussian 16:  EM64L-G16RevB.01 20-Dec-2017

 --------------------------------
 #n B3LYP/6-31+G(d,p) Opt Pop=NPA
 --------------------------------

 ---
 HCl
 ---
 Symbolic Z-matrix:
 Charge =  0 Multiplicity = 1

 SCF Done:  E(RB3LYP) =  -460.799330416     A.U. after    8 cycles
 SCF Done:  E(RB3LYP) =  -460.803202537     A.U. after    8 cycles
 SCF Done:  E(RB3LYP) =  -460.803208363     A.U. after    7 cycles
 Optimization completed.
    -- Stationary point found.

                         Standard orientation:
 ---------------------------------------------------------------------
 Center     Atomic      Atomic             Coordinates (Angstroms)
 Number     Number       Type             X           Y           Z
 ---------------------------------------------------------------------
      1         17           0        0.000000    0.000000    0.071492
      2          1           0        0.000000    0.000000   -1.215364
 ---------------------------------------------------------------------

 The electronic state is 1-SG.
 Alpha  occ. eigenvalues -- -101.56534  -9.48111  -7.24518  -7.23522  -7.23522
 Alpha  occ. eigenvalues --   -0.85375  -0.47975  -0.33781  -0.33781
 Alpha virt. eigenvalues --   -0.01554   0.06256   0.07024   0.07592   0.07592
 Alpha virt. eigenvalues --    0.52962   0.58943   0.59936   0.59936   0.71801
 Alpha virt. eigenvalues --    0.79375   0.79375   0.85783   0.85783   1.21325

 Mulliken charges:
               1
     1  Cl  -0.181984
     2  H    0.181984
 Sum of Mulliken charges =  -0.00000

 Dipole moment (field-independent basis, Debye):
    X=              0.0000    Y=              0.0000    Z=             -1.4674  Tot=              1.4674
 Quadrupole moment (field-independent basis, Debye-Ang):
   XX=            -14.1874   YY=            -14.1874   ZZ=            -10.4757
   XY=              0.0000   XZ=              0.0000   YZ=              0.0000

 Summary of Natural Population Analysis:

                                       Natural Population
                Natural  -----------------------------------------------
    Atom  No    Charge         Core      Valence    Rydberg      Total
 -----------------------------------------------------------------------
     Cl    1   -0.28836      9.99977     7.27271    0.01588    17.28836
      H    2    0.28836      0.00000     0.70754    0.00410     0.71164
 =======================================================================
   * Total *    0.00000      9.99977     7.98025    0.01998    18.00000

 Normal termination of Gaussian 16 at Mon Feb 11 12:11:29 2019.
